/*--------------------------------*- C++ -*----------------------------------*\
| =========                 |                                                 |
| \\      /  F ield         | OpenFOAM: The Open Source CFD Toolbox           |
|  \\    /   O peration     | Version:  2412                                  |
|   \\  /    A nd           | Website:  www.openfoam.com                      |
|    \\/     M anipulation  |                                                 |
\*---------------------------------------------------------------------------*/
FoamFile
{
    version     2.0;
    format      ascii;
    arch        "LSB;label=32;scalar=64";
    class       featureEdgeMesh;
    location    "constant/triSurface";
    object      lowerWall.eMesh;
}
// * * * * * * * * * * * * * * * * * * * * * * * * * * * * * * * * * * * * * //


// points:

68
(
(0.786857 0.5 0.149991)
(0.786857 0.3 0.149991)
(0.81399 0.3 0.0943601)
(0.81399 0.5 0.0943601)
(0.860011 0.3 1e-06)
(0.860011 0.5 1e-06)
(0.895021 0.5 0.133523)
(0.895021 0.3 0.133523)
(0.848411 0.3 0.131534)
(0.848411 0.5 0.131534)
(0.895021 0.3 0.12802)
(0.895021 0.5 0.12802)
(1.62004 0.3 1e-06)
(1.62004 0.5 1e-06)
(1.62004 0.3 0.0479772)
(1.62004 0.5 0.0479772)
(2.26004 0.5 0.0479772)
(2.26004 0.3 0.0479772)
(0.540006 0.3 0.148002)
(0.2 0.3 0.148002)
(0.540006 0.5 0.148002)
(0.2 0.5 0.148002)
(0.552029 0.5 0.159982)
(0.552029 0.3 0.159982)
(0.624039 0.5 0.174376)
(0.624039 0.3 0.174376)
(0.624039 0.5 0.159982)
(0.624039 0.3 0.159982)
(0.683434 0.3 0.160787)
(0.681856 0.3 0.162378)
(0.683434 0.5 0.160787)
(0.681856 0.5 0.162378)
(0.768696 0.3 0.162819)
(0.75807 0.3 0.161972)
(0.75807 0.5 0.161972)
(0.768696 0.5 0.162819)
(0.781938 0.5 0.15574)
(0.781938 0.3 0.15574)
(0.775758 0.5 0.160105)
(0.775758 0.3 0.160105)
(0.859755 0.5 0.143551)
(0.859755 0.3 0.143551)
(0.823509 0.3 0.14907)
(0.823509 0.5 0.14907)
(0.747401 0.3 0.161295)
(0.747401 0.5 0.161295)
(0.653631 0.3 0.174376)
(0.653631 0.5 0.174376)
(0.676095 0.5 0.16288)
(0.676095 0.3 0.16288)
(0.670609 0.5 0.16471)
(0.670609 0.3 0.16471)
(0.6657 0.5 0.167767)
(0.6657 0.3 0.167767)
(0.662275 0.5 0.170961)
(0.662275 0.3 0.170961)
(0.658167 0.5 0.17321)
(0.658167 0.3 0.17321)
(0.736776 0.3 0.160787)
(0.736776 0.5 0.160787)
(0.726107 0.3 0.160448)
(0.726107 0.5 0.160448)
(0.715439 0.3 0.160279)
(0.715439 0.5 0.160279)
(0.704771 0.3 0.160279)
(0.704771 0.5 0.160279)
(0.694103 0.3 0.160448)
(0.694103 0.5 0.160448)
)


// edges:

82
(
(0 1)
(2 3)
(5 4)
(8 9)
(12 13)
(20 18)
(27 26)
(30 28)
(6 7)
(10 11)
(15 14)
(22 23)
(24 25)
(29 31)
(32 33)
(34 35)
(36 0)
(1 37)
(38 36)
(37 39)
(35 38)
(39 32)
(4 2)
(3 5)
(40 6)
(7 41)
(41 42)
(42 1)
(0 43)
(43 40)
(2 8)
(9 3)
(8 10)
(11 9)
(10 7)
(6 11)
(14 12)
(13 15)
(5 13)
(12 4)
(15 16)
(16 17)
(17 14)
(33 44)
(45 34)
(18 19)
(19 21)
(21 20)
(20 22)
(23 18)
(26 24)
(25 27)
(27 23)
(22 26)
(46 25)
(24 47)
(28 29)
(31 30)
(48 31)
(29 49)
(50 48)
(49 51)
(52 50)
(51 53)
(54 52)
(53 55)
(56 54)
(55 57)
(47 56)
(57 46)
(44 58)
(59 45)
(58 60)
(61 59)
(60 62)
(63 61)
(62 64)
(65 63)
(64 66)
(67 65)
(66 28)
(30 67)
)

// * * * * * * * * * * * * * * * * * * * * * * * * * * * * * * * * * * * * * //


// ************************************************************************* //
